 *******************************************************************************
 ** Site#: 9938            For non-commercial use only        Version 11.038L **
 *******************************************************************************
 ** Cite this work as: MOPAC2009, James J. P. Stewart, Stewart Computational  **
 ** Chemistry, Version 11.038L web: HTTP://OpenMOPAC.net  Days remaining:  71 **
 *******************************************************************************
 **                                                                           **
 **                                MOPAC2009                                  **
 **                                                                           **
 *******************************************************************************

                            PM6 CALCULATION RESULTS


 *******************************************************************************
 *  CALCULATION DONE:                                Mon Nov 28 15:29:51 2011  *
 *  PM6      - The PM6 Hamiltonian to be used
 *  1SCF     - DO 1 SCF AND THEN STOP 
 *  T=       - A TIME OF 172800.0 SECONDS REQUESTED
 *  DUMP=N   - RESTART FILE WRITTEN EVERY  7200.000 SECONDS
 *******************************************************************************
PM6 1SCF


   ATOM   CHEMICAL          X               Y               Z
  NUMBER   SYMBOL      (ANGSTROMS)     (ANGSTROMS)     (ANGSTROMS)
 
     1       N         72.52300000  *  19.39600000  * 124.85400000  *
     2       H         72.30500000  *  19.71500000  * 125.75100000  *
     3       H         72.01300000  *  18.66200000  * 124.46000000  *
     4       H         73.24900000  *  19.81200000  * 124.35100000  *
 


          CARTESIAN COORDINATES 

    NO.       ATOM         X         Y         Z

     1         N       72.5230   19.3960  124.8540
     2         H       72.3050   19.7150  125.7510
     3         H       72.0130   18.6620  124.4600
     4         H       73.2490   19.8120  124.3510

 General Reference for PM6:
 "Optimization of Parameters for Semiempirical Methods V: Modification of NDDO Approximations
 and Application to 70 Elements", J. J. P. Stewart, J. Mol. Mod., 13, 1173-1213 (2007)
 URL: http://www.springerlink.com/content/ar33482301010477/fulltext.pdf

           Empirical Formula: H3 N  =     4 atoms



      MOLECULAR POINT GROUP   :   D3h 


      RHF CALCULATION, NO. OF DOUBLY OCCUPIED LEVELS =    4


 -------------------------------------------------------------------------------
PM6 1SCF




     1SCF WAS SPECIFIED, SO BFGS WAS NOT USED                 
     SCF FIELD WAS ACHIEVED                                   


                               PM6     CALCULATION
                                                       MOPAC2009 (Version: 11.038L)
                                                       Mon Nov 28 15:29:51 2011
                                                       No. of days left =  71




          FINAL HEAT OF FORMATION =          2.80412 KCAL/MOL =      11.73246 KJ/MOL


          TOTAL ENERGY            =       -220.24894 EV
          ELECTRONIC ENERGY       =       -411.54245 EV  POINT GROUP:     D3h 
          CORE-CORE REPULSION     =        191.29350 EV
          COSMO AREA              =         47.06 SQUARE ANGSTROMS
          COSMO VOLUME            =         32.52 CUBIC ANGSTROMS

          IONIZATION POTENTIAL    =          9.151558 EV
          HOMO LUMO ENERGIES (EV) =         -9.152  4.179
          NO. OF FILLED LEVELS    =          4
          MOLECULAR WEIGHT        =         17.030

          MOLECULAR DIMENSIONS (Angstroms)

            Atom       Atom       Distance
            H     4    H     3     1.69177
            H     2    H     4     1.46463
            H     3    N     1     0.00065


          SCF CALCULATIONS        =          1
          COMPUTATION TIME        =          0.028 SECONDS




   ATOM   CHEMICAL          X               Y               Z
  NUMBER   SYMBOL      (ANGSTROMS)     (ANGSTROMS)     (ANGSTROMS)
 
     1       N         72.52300000  *  19.39600000  * 124.85400000  *
     2       H         72.30500000  *  19.71500000  * 125.75100000  *
     3       H         72.01300000  *  18.66200000  * 124.46000000  *
     4       H         73.24900000  *  19.81200000  * 124.35100000  *

           Empirical Formula: H3 N  =     4 atoms



      MOLECULAR POINT GROUP   :   D3h 


                  EIGENVALUES  
 -31.06816 -16.65852 -16.65225  -9.15156   4.17945   7.94244   7.94739


              NET ATOMIC CHARGES AND DIPOLE CONTRIBUTIONS

  ATOM NO.   TYPE          CHARGE      No. of ELECS.   s-Pop       p-Pop       
    1          N          -0.753139        5.7531     1.42486     4.32828
    2          H           0.250977        0.7490     0.74902
    3          H           0.251085        0.7489     0.74892
    4          H           0.251077        0.7489     0.74892
 DIPOLE           X         Y         Z       TOTAL
 POINT-CHG.    -0.002     0.001     0.000     0.003
 HYBRID        -0.002     0.002    -0.001     0.003
 SUM           -0.004     0.003    -0.001     0.006


          CARTESIAN COORDINATES 

    NO.       ATOM               X         Y         Z

     1         N                 72.5230   19.3960  124.8540
     2         H                 72.3050   19.7150  125.7510
     3         H                 72.0130   18.6620  124.4600
     4         H                 73.2490   19.8120  124.3510


          ATOMIC ORBITAL ELECTRON POPULATIONS

   1.42486   1.51238   1.52475   1.29115   0.74902   0.74892   0.74892



 TOTAL CPU TIME:             0.02 SECONDS

 == MOPAC DONE ==
